# vtk DataFile Version 3.0
DG1D solution: u t=1.3873273158e+00
ASCII
DATASET UNSTRUCTURED_GRID
POINTS 50 double
0.0000000000e+00 0.0 0.0
1.0849374910e-01 0.0 0.0
3.1415926536e-01 0.0 0.0
5.1982478161e-01 0.0 0.0
6.2831853072e-01 0.0 0.0
6.2831853072e-01 0.0 0.0
7.3681227982e-01 0.0 0.0
9.4247779608e-01 0.0 0.0
1.1481433123e+00 0.0 0.0
1.2566370614e+00 0.0 0.0
1.2566370614e+00 0.0 0.0
1.3651308105e+00 0.0 0.0
1.5707963268e+00 0.0 0.0
1.7764618430e+00 0.0 0.0
1.8849555922e+00 0.0 0.0
1.8849555922e+00 0.0 0.0
1.9934493413e+00 0.0 0.0
2.1991148575e+00 0.0 0.0
2.4047803738e+00 0.0 0.0
2.5132741229e+00 0.0 0.0
2.5132741229e+00 0.0 0.0
2.6217678720e+00 0.0 0.0
2.8274333882e+00 0.0 0.0
3.0330989045e+00 0.0 0.0
3.1415926536e+00 0.0 0.0
3.1415926536e+00 0.0 0.0
3.2500864027e+00 0.0 0.0
3.4557519189e+00 0.0 0.0
3.6614174352e+00 0.0 0.0
3.7699111843e+00 0.0 0.0
3.7699111843e+00 0.0 0.0
3.8784049334e+00 0.0 0.0
4.0840704497e+00 0.0 0.0
4.2897359659e+00 0.0 0.0
4.3982297150e+00 0.0 0.0
4.3982297150e+00 0.0 0.0
4.5067234641e+00 0.0 0.0
4.7123889804e+00 0.0 0.0
4.9180544966e+00 0.0 0.0
5.0265482457e+00 0.0 0.0
5.0265482457e+00 0.0 0.0
5.1350419948e+00 0.0 0.0
5.3407075111e+00 0.0 0.0
5.5463730274e+00 0.0 0.0
5.6548667765e+00 0.0 0.0
5.6548667765e+00 0.0 0.0
5.7633605256e+00 0.0 0.0
5.9690260418e+00 0.0 0.0
6.1746915581e+00 0.0 0.0
6.2831853072e+00 0.0 0.0

CELLS 10 60
5 0 1 2 3 4
5 5 6 7 8 9
5 10 11 12 13 14
5 15 16 17 18 19
5 20 21 22 23 24
5 25 26 27 28 29
5 30 31 32 33 34
5 35 36 37 38 39
5 40 41 42 43 44
5 45 46 47 48 49

CELL_TYPES 10
4
4
4
4
4
4
4
4
4
4

POINT_DATA 50
SCALARS u double 1
LOOKUP_TABLE default
-1.2559569705e+03
-3.4148077349e+02
-6.2063573210e+01
4.1277433891e+01
-3.3507252891e+02
-2.6710637830e+03
-8.1786863517e+02
-1.2184429236e+02
4.2351892149e+01
-3.7906728893e+02
-3.0659150165e+03
-9.8185847655e+02
-1.3508463317e+02
2.7249367093e+01
-2.7827122860e+02
-2.2896909203e+03
-7.7081175202e+02
-9.6727235460e+01
1.7385099800e+00
-7.1185017037e+01
-6.3888271632e+02
-2.6534113716e+02
-2.1423321445e+01
-2.4436398856e+01
1.6309145154e+02
1.2559569705e+03
3.4148077349e+02
6.2063573210e+01
-4.1277433891e+01
3.3507252891e+02
2.6710637830e+03
8.1786863517e+02
1.2184429236e+02
-4.2351892149e+01
3.7906728893e+02
3.0659150165e+03
9.8185847655e+02
1.3508463317e+02
-2.7249367093e+01
2.7827122860e+02
2.2896909203e+03
7.7081175202e+02
9.6727235460e+01
-1.7385099800e+00
7.1185017037e+01
6.3888271632e+02
2.6534113716e+02
2.1423321445e+01
2.4436398856e+01
-1.6309145154e+02
