# vtk DataFile Version 3.0
DG1D solution: u t=3.9106545352e+00
ASCII
DATASET UNSTRUCTURED_GRID
POINTS 50 double
0.0000000000e+00 0.0 0.0
2.1692905796e-02 0.0 0.0
3.1415926536e-01 0.0 0.0
6.0662562492e-01 0.0 0.0
6.2831853072e-01 0.0 0.0
6.2831853072e-01 0.0 0.0
6.5001143651e-01 0.0 0.0
9.4247779608e-01 0.0 0.0
1.2349441556e+00 0.0 0.0
1.2566370614e+00 0.0 0.0
1.2566370614e+00 0.0 0.0
1.2783299672e+00 0.0 0.0
1.5707963268e+00 0.0 0.0
1.8632626864e+00 0.0 0.0
1.8849555922e+00 0.0 0.0
1.8849555922e+00 0.0 0.0
1.9066484979e+00 0.0 0.0
2.1991148575e+00 0.0 0.0
2.4915812171e+00 0.0 0.0
2.5132741229e+00 0.0 0.0
2.5132741229e+00 0.0 0.0
2.5349670287e+00 0.0 0.0
2.8274333882e+00 0.0 0.0
3.1198997478e+00 0.0 0.0
3.1415926536e+00 0.0 0.0
3.1415926536e+00 0.0 0.0
3.1632855594e+00 0.0 0.0
3.4557519189e+00 0.0 0.0
3.7482182785e+00 0.0 0.0
3.7699111843e+00 0.0 0.0
3.7699111843e+00 0.0 0.0
3.7916040901e+00 0.0 0.0
4.0840704497e+00 0.0 0.0
4.3765368092e+00 0.0 0.0
4.3982297150e+00 0.0 0.0
4.3982297150e+00 0.0 0.0
4.4199226208e+00 0.0 0.0
4.7123889804e+00 0.0 0.0
5.0048553399e+00 0.0 0.0
5.0265482457e+00 0.0 0.0
5.0265482457e+00 0.0 0.0
5.0482411515e+00 0.0 0.0
5.3407075111e+00 0.0 0.0
5.6331738707e+00 0.0 0.0
5.6548667765e+00 0.0 0.0
5.6548667765e+00 0.0 0.0
5.6765596823e+00 0.0 0.0
5.9690260418e+00 0.0 0.0
6.2614924014e+00 0.0 0.0
6.2831853072e+00 0.0 0.0

CELLS 10 60
5 0 1 2 3 4
5 5 6 7 8 9
5 10 11 12 13 14
5 15 16 17 18 19
5 20 21 22 23 24
5 25 26 27 28 29
5 30 31 32 33 34
5 35 36 37 38 39
5 40 41 42 43 44
5 45 46 47 48 49

CELL_TYPES 10
4
4
4
4
4
4
4
4
4
4

POINT_DATA 50
SCALARS u double 1
LOOKUP_TABLE default
1.7127958851e+46
1.2093210170e+46
-1.6402939150e+44
-2.9809021672e+45
-1.6777667977e+45
2.4662137496e+46
1.7661152009e+46
-6.0228425824e+44
-2.4551737406e+45
-1.3067827154e+45
2.2776217853e+46
1.6483134061e+46
-8.1048700922e+44
-9.9165239345e+44
-4.3665205174e+44
1.2190557125e+46
9.0091191436e+45
-7.0911127011e+44
8.5064646301e+44
6.0026485441e+44
-3.0514820827e+45
-1.9060730785e+45
-3.3687912763e+44
2.3680272830e+45
1.4079009884e+45
-1.7127958851e+46
-1.2093210170e+46
1.6402939150e+44
2.9809021672e+45
1.6777667977e+45
-2.4662137496e+46
-1.7661152009e+46
6.0228425824e+44
2.4551737406e+45
1.3067827154e+45
-2.2776217853e+46
-1.6483134061e+46
8.1048700922e+44
9.9165239345e+44
4.3665205174e+44
-1.2190557125e+46
-9.0091191436e+45
7.0911127011e+44
-8.5064646301e+44
-6.0026485441e+44
3.0514820827e+45
1.9060730785e+45
3.3687912763e+44
-2.3680272830e+45
-1.4079009884e+45
