# vtk DataFile Version 3.0
DG1D solution: u t=6.2530260177e+00
ASCII
DATASET UNSTRUCTURED_GRID
POINTS 50 double
0.0000000000e+00 0.0 0.0
1.0849374910e-01 0.0 0.0
3.1415926536e-01 0.0 0.0
5.1982478161e-01 0.0 0.0
6.2831853072e-01 0.0 0.0
6.2831853072e-01 0.0 0.0
7.3681227982e-01 0.0 0.0
9.4247779608e-01 0.0 0.0
1.1481433123e+00 0.0 0.0
1.2566370614e+00 0.0 0.0
1.2566370614e+00 0.0 0.0
1.3651308105e+00 0.0 0.0
1.5707963268e+00 0.0 0.0
1.7764618430e+00 0.0 0.0
1.8849555922e+00 0.0 0.0
1.8849555922e+00 0.0 0.0
1.9934493413e+00 0.0 0.0
2.1991148575e+00 0.0 0.0
2.4047803738e+00 0.0 0.0
2.5132741229e+00 0.0 0.0
2.5132741229e+00 0.0 0.0
2.6217678720e+00 0.0 0.0
2.8274333882e+00 0.0 0.0
3.0330989045e+00 0.0 0.0
3.1415926536e+00 0.0 0.0
3.1415926536e+00 0.0 0.0
3.2500864027e+00 0.0 0.0
3.4557519189e+00 0.0 0.0
3.6614174352e+00 0.0 0.0
3.7699111843e+00 0.0 0.0
3.7699111843e+00 0.0 0.0
3.8784049334e+00 0.0 0.0
4.0840704497e+00 0.0 0.0
4.2897359659e+00 0.0 0.0
4.3982297150e+00 0.0 0.0
4.3982297150e+00 0.0 0.0
4.5067234641e+00 0.0 0.0
4.7123889804e+00 0.0 0.0
4.9180544966e+00 0.0 0.0
5.0265482457e+00 0.0 0.0
5.0265482457e+00 0.0 0.0
5.1350419948e+00 0.0 0.0
5.3407075111e+00 0.0 0.0
5.5463730274e+00 0.0 0.0
5.6548667765e+00 0.0 0.0
5.6548667765e+00 0.0 0.0
5.7633605256e+00 0.0 0.0
5.9690260418e+00 0.0 0.0
6.1746915581e+00 0.0 0.0
6.2831853072e+00 0.0 0.0

CELLS 10 60
5 0 1 2 3 4
5 5 6 7 8 9
5 10 11 12 13 14
5 15 16 17 18 19
5 20 21 22 23 24
5 25 26 27 28 29
5 30 31 32 33 34
5 35 36 37 38 39
5 40 41 42 43 44
5 45 46 47 48 49

CELL_TYPES 10
4
4
4
4
4
4
4
4
4
4

POINT_DATA 50
SCALARS u double 1
LOOKUP_TABLE default
-8.8754478199e+24
-2.7212759750e+24
-4.0304774545e+23
1.3904924190e+23
-1.2415689343e+24
-1.0049037659e+25
-3.2225837503e+24
-4.4294223212e+23
8.5896892539e+22
-8.9810192650e+23
-7.3842366659e+24
-2.4929740645e+24
-3.1364784117e+23
-6.5150247710e+19
-2.1159050812e+23
-1.8989082479e+24
-8.1113301917e+23
-6.4550635394e+22
-8.6002307855e+22
5.5574129267e+23
4.3117385793e+24
1.1805332701e+24
2.0920271911e+23
-1.3908950697e+23
1.1107988086e+24
8.8754478199e+24
2.7212759750e+24
4.0304774545e+23
-1.3904924190e+23
1.2415689343e+24
1.0049037659e+25
3.2225837503e+24
4.4294223212e+23
-8.5896892539e+22
8.9810192650e+23
7.3842366659e+24
2.4929740645e+24
3.1364784117e+23
6.5150247719e+19
2.1159050811e+23
1.8989082479e+24
8.1113301917e+23
6.4550635394e+22
8.6002307855e+22
-5.5574129267e+23
-4.3117385793e+24
-1.1805332701e+24
-2.0920271911e+23
1.3908950697e+23
-1.1107988086e+24
