# vtk DataFile Version 3.0
DG1D solution: u t=4.1921412370e+00
ASCII
DATASET UNSTRUCTURED_GRID
POINTS 50 double
0.0000000000e+00 0.0 0.0
1.0849374910e-01 0.0 0.0
3.1415926536e-01 0.0 0.0
5.1982478161e-01 0.0 0.0
6.2831853072e-01 0.0 0.0
6.2831853072e-01 0.0 0.0
7.3681227982e-01 0.0 0.0
9.4247779608e-01 0.0 0.0
1.1481433123e+00 0.0 0.0
1.2566370614e+00 0.0 0.0
1.2566370614e+00 0.0 0.0
1.3651308105e+00 0.0 0.0
1.5707963268e+00 0.0 0.0
1.7764618430e+00 0.0 0.0
1.8849555922e+00 0.0 0.0
1.8849555922e+00 0.0 0.0
1.9934493413e+00 0.0 0.0
2.1991148575e+00 0.0 0.0
2.4047803738e+00 0.0 0.0
2.5132741229e+00 0.0 0.0
2.5132741229e+00 0.0 0.0
2.6217678720e+00 0.0 0.0
2.8274333882e+00 0.0 0.0
3.0330989045e+00 0.0 0.0
3.1415926536e+00 0.0 0.0
3.1415926536e+00 0.0 0.0
3.2500864027e+00 0.0 0.0
3.4557519189e+00 0.0 0.0
3.6614174352e+00 0.0 0.0
3.7699111843e+00 0.0 0.0
3.7699111843e+00 0.0 0.0
3.8784049334e+00 0.0 0.0
4.0840704497e+00 0.0 0.0
4.2897359659e+00 0.0 0.0
4.3982297150e+00 0.0 0.0
4.3982297150e+00 0.0 0.0
4.5067234641e+00 0.0 0.0
4.7123889804e+00 0.0 0.0
4.9180544966e+00 0.0 0.0
5.0265482457e+00 0.0 0.0
5.0265482457e+00 0.0 0.0
5.1350419948e+00 0.0 0.0
5.3407075111e+00 0.0 0.0
5.5463730274e+00 0.0 0.0
5.6548667765e+00 0.0 0.0
5.6548667765e+00 0.0 0.0
5.7633605256e+00 0.0 0.0
5.9690260418e+00 0.0 0.0
6.1746915581e+00 0.0 0.0
6.2831853072e+00 0.0 0.0

CELLS 10 60
5 0 1 2 3 4
5 5 6 7 8 9
5 10 11 12 13 14
5 15 16 17 18 19
5 20 21 22 23 24
5 25 26 27 28 29
5 30 31 32 33 34
5 35 36 37 38 39
5 40 41 42 43 44
5 45 46 47 48 49

CELL_TYPES 10
4
4
4
4
4
4
4
4
4
4

POINT_DATA 50
SCALARS u double 1
LOOKUP_TABLE default
-5.5588455521e+15
-1.6540838757e+15
-2.5719973581e+14
1.1252248297e+14
-9.5809239139e+14
-7.7136872490e+15
-2.4292460921e+15
-3.4421211591e+14
8.8398109466e+13
-8.4878639594e+14
-6.9221625953e+15
-2.2765188684e+15
-2.9974716707e+14
3.0508662689e+13
-4.1527284643e+14
-3.4866071059e+15
-1.2542388130e+15
-1.4078898844e+14
-3.9034056285e+13
1.7686081581e+14
1.2807137926e+15
2.4711783897e+14
7.1945798524e+13
-9.3667092476e+13
7.0143965769e+14
5.5588455521e+15
1.6540838757e+15
2.5719973581e+14
-1.1252248297e+14
9.5809239139e+14
7.7136872490e+15
2.4292460921e+15
3.4421211591e+14
-8.8398109466e+13
8.4878639594e+14
6.9221625953e+15
2.2765188684e+15
2.9974716707e+14
-3.0508662689e+13
4.1527284643e+14
3.4866071059e+15
1.2542388130e+15
1.4078898844e+14
3.9034056285e+13
-1.7686081581e+14
-1.2807137926e+15
-2.4711783897e+14
-7.1945798524e+13
9.3667092476e+13
-7.0143965769e+14
