# vtk DataFile Version 3.0
DG1D solution: u t=2.9556103685e+00
ASCII
DATASET UNSTRUCTURED_GRID
POINTS 50 double
0.0000000000e+00 0.0 0.0
2.1692905796e-02 0.0 0.0
3.1415926536e-01 0.0 0.0
6.0662562492e-01 0.0 0.0
6.2831853072e-01 0.0 0.0
6.2831853072e-01 0.0 0.0
6.5001143651e-01 0.0 0.0
9.4247779608e-01 0.0 0.0
1.2349441556e+00 0.0 0.0
1.2566370614e+00 0.0 0.0
1.2566370614e+00 0.0 0.0
1.2783299672e+00 0.0 0.0
1.5707963268e+00 0.0 0.0
1.8632626864e+00 0.0 0.0
1.8849555922e+00 0.0 0.0
1.8849555922e+00 0.0 0.0
1.9066484979e+00 0.0 0.0
2.1991148575e+00 0.0 0.0
2.4915812171e+00 0.0 0.0
2.5132741229e+00 0.0 0.0
2.5132741229e+00 0.0 0.0
2.5349670287e+00 0.0 0.0
2.8274333882e+00 0.0 0.0
3.1198997478e+00 0.0 0.0
3.1415926536e+00 0.0 0.0
3.1415926536e+00 0.0 0.0
3.1632855594e+00 0.0 0.0
3.4557519189e+00 0.0 0.0
3.7482182785e+00 0.0 0.0
3.7699111843e+00 0.0 0.0
3.7699111843e+00 0.0 0.0
3.7916040901e+00 0.0 0.0
4.0840704497e+00 0.0 0.0
4.3765368092e+00 0.0 0.0
4.3982297150e+00 0.0 0.0
4.3982297150e+00 0.0 0.0
4.4199226208e+00 0.0 0.0
4.7123889804e+00 0.0 0.0
5.0048553399e+00 0.0 0.0
5.0265482457e+00 0.0 0.0
5.0265482457e+00 0.0 0.0
5.0482411515e+00 0.0 0.0
5.3407075111e+00 0.0 0.0
5.6331738707e+00 0.0 0.0
5.6548667765e+00 0.0 0.0
5.6548667765e+00 0.0 0.0
5.6765596823e+00 0.0 0.0
5.9690260418e+00 0.0 0.0
6.2614924014e+00 0.0 0.0
6.2831853072e+00 0.0 0.0

CELLS 10 60
5 0 1 2 3 4
5 5 6 7 8 9
5 10 11 12 13 14
5 15 16 17 18 19
5 20 21 22 23 24
5 25 26 27 28 29
5 30 31 32 33 34
5 35 36 37 38 39
5 40 41 42 43 44
5 45 46 47 48 49

CELL_TYPES 10
4
4
4
4
4
4
4
4
4
4

POINT_DATA 50
SCALARS u double 1
LOOKUP_TABLE default
-7.6425339096e+33
-5.8612228076e+33
7.5875036000e+32
-2.1097830437e+33
-1.3280686922e+33
1.2841661496e+34
8.8731368678e+33
1.6251284746e+32
-3.6674206830e+33
-2.1227177426e+33
2.8420778682e+34
2.0218259846e+34
-4.9579904919e+32
-3.8242282725e+33
-2.1065607639e+33
3.3144124398e+34
2.3840694757e+34
-9.6473256064e+32
-2.5203106426e+33
-1.2857691727e+33
2.5207541122e+34
1.8356794586e+34
-1.0651710240e+33
-2.5372000946e+32
2.6142540799e+31
7.6425339096e+33
5.8612228076e+33
-7.5875036000e+32
2.1097830437e+33
1.3280686922e+33
-1.2841661496e+34
-8.8731368677e+33
-1.6251284746e+32
3.6674206830e+33
2.1227177426e+33
-2.8420778682e+34
-2.0218259846e+34
4.9579904919e+32
3.8242282725e+33
2.1065607639e+33
-3.3144124398e+34
-2.3840694757e+34
9.6473256064e+32
2.5203106426e+33
1.2857691727e+33
-2.5207541122e+34
-1.8356794586e+34
1.0651710240e+33
2.5372000946e+32
-2.6142540799e+31
