# vtk DataFile Version 3.0
DG1D solution: u t=1.4778051842e+00
ASCII
DATASET UNSTRUCTURED_GRID
POINTS 50 double
0.0000000000e+00 0.0 0.0
2.1692905796e-02 0.0 0.0
3.1415926536e-01 0.0 0.0
6.0662562492e-01 0.0 0.0
6.2831853072e-01 0.0 0.0
6.2831853072e-01 0.0 0.0
6.5001143651e-01 0.0 0.0
9.4247779608e-01 0.0 0.0
1.2349441556e+00 0.0 0.0
1.2566370614e+00 0.0 0.0
1.2566370614e+00 0.0 0.0
1.2783299672e+00 0.0 0.0
1.5707963268e+00 0.0 0.0
1.8632626864e+00 0.0 0.0
1.8849555922e+00 0.0 0.0
1.8849555922e+00 0.0 0.0
1.9066484979e+00 0.0 0.0
2.1991148575e+00 0.0 0.0
2.4915812171e+00 0.0 0.0
2.5132741229e+00 0.0 0.0
2.5132741229e+00 0.0 0.0
2.5349670287e+00 0.0 0.0
2.8274333882e+00 0.0 0.0
3.1198997478e+00 0.0 0.0
3.1415926536e+00 0.0 0.0
3.1415926536e+00 0.0 0.0
3.1632855594e+00 0.0 0.0
3.4557519189e+00 0.0 0.0
3.7482182785e+00 0.0 0.0
3.7699111843e+00 0.0 0.0
3.7699111843e+00 0.0 0.0
3.7916040901e+00 0.0 0.0
4.0840704497e+00 0.0 0.0
4.3765368092e+00 0.0 0.0
4.3982297150e+00 0.0 0.0
4.3982297150e+00 0.0 0.0
4.4199226208e+00 0.0 0.0
4.7123889804e+00 0.0 0.0
5.0048553399e+00 0.0 0.0
5.0265482457e+00 0.0 0.0
5.0265482457e+00 0.0 0.0
5.0482411515e+00 0.0 0.0
5.3407075111e+00 0.0 0.0
5.6331738707e+00 0.0 0.0
5.6548667765e+00 0.0 0.0
5.6548667765e+00 0.0 0.0
5.6765596823e+00 0.0 0.0
5.9690260418e+00 0.0 0.0
6.2614924014e+00 0.0 0.0
6.2831853072e+00 0.0 0.0

CELLS 10 60
5 0 1 2 3 4
5 5 6 7 8 9
5 10 11 12 13 14
5 15 16 17 18 19
5 20 21 22 23 24
5 25 26 27 28 29
5 30 31 32 33 34
5 35 36 37 38 39
5 40 41 42 43 44
5 45 46 47 48 49

CELL_TYPES 10
4
4
4
4
4
4
4
4
4
4

POINT_DATA 50
SCALARS u double 1
LOOKUP_TABLE default
-1.3637919084e+16
-9.7683703717e+15
3.3589746195e+14
1.3434358943e+15
7.1403446049e+14
-1.2496232886e+16
-9.0456024980e+15
4.4775124191e+14
5.2864172873e+14
2.3025442026e+14
-6.5814104563e+15
-4.8677219188e+15
3.8857926597e+14
-4.8807560932e+14
-3.4147498246e+14
1.8472870736e+15
1.1694629856e+15
1.8098321775e+14
-1.3183646537e+15
-7.8277254819e+14
9.5703837284e+15
6.7599527781e+15
-9.5742268257e+13
-1.6450832099e+15
-9.2507760596e+14
1.3637919084e+16
9.7683703717e+15
-3.3589746195e+14
-1.3434358943e+15
-7.1403446049e+14
1.2496232886e+16
9.0456024980e+15
-4.4775124191e+14
-5.2864172873e+14
-2.3025442026e+14
6.5814104563e+15
4.8677219188e+15
-3.8857926597e+14
4.8807560932e+14
3.4147498246e+14
-1.8472870736e+15
-1.1694629856e+15
-1.8098321775e+14
1.3183646537e+15
7.8277254819e+14
-9.5703837284e+15
-6.7599527781e+15
9.5742268257e+13
1.6450832099e+15
9.2507760596e+14
