# vtk DataFile Version 3.0
DG1D solution: u t=2.3624776755e+00
ASCII
DATASET UNSTRUCTURED_GRID
POINTS 50 double
0.0000000000e+00 0.0 0.0
1.0849374910e-01 0.0 0.0
3.1415926536e-01 0.0 0.0
5.1982478161e-01 0.0 0.0
6.2831853072e-01 0.0 0.0
6.2831853072e-01 0.0 0.0
7.3681227982e-01 0.0 0.0
9.4247779608e-01 0.0 0.0
1.1481433123e+00 0.0 0.0
1.2566370614e+00 0.0 0.0
1.2566370614e+00 0.0 0.0
1.3651308105e+00 0.0 0.0
1.5707963268e+00 0.0 0.0
1.7764618430e+00 0.0 0.0
1.8849555922e+00 0.0 0.0
1.8849555922e+00 0.0 0.0
1.9934493413e+00 0.0 0.0
2.1991148575e+00 0.0 0.0
2.4047803738e+00 0.0 0.0
2.5132741229e+00 0.0 0.0
2.5132741229e+00 0.0 0.0
2.6217678720e+00 0.0 0.0
2.8274333882e+00 0.0 0.0
3.0330989045e+00 0.0 0.0
3.1415926536e+00 0.0 0.0
3.1415926536e+00 0.0 0.0
3.2500864027e+00 0.0 0.0
3.4557519189e+00 0.0 0.0
3.6614174352e+00 0.0 0.0
3.7699111843e+00 0.0 0.0
3.7699111843e+00 0.0 0.0
3.8784049334e+00 0.0 0.0
4.0840704497e+00 0.0 0.0
4.2897359659e+00 0.0 0.0
4.3982297150e+00 0.0 0.0
4.3982297150e+00 0.0 0.0
4.5067234641e+00 0.0 0.0
4.7123889804e+00 0.0 0.0
4.9180544966e+00 0.0 0.0
5.0265482457e+00 0.0 0.0
5.0265482457e+00 0.0 0.0
5.1350419948e+00 0.0 0.0
5.3407075111e+00 0.0 0.0
5.5463730274e+00 0.0 0.0
5.6548667765e+00 0.0 0.0
5.6548667765e+00 0.0 0.0
5.7633605256e+00 0.0 0.0
5.9690260418e+00 0.0 0.0
6.1746915581e+00 0.0 0.0
6.2831853072e+00 0.0 0.0

CELLS 10 60
5 0 1 2 3 4
5 5 6 7 8 9
5 10 11 12 13 14
5 15 16 17 18 19
5 20 21 22 23 24
5 25 26 27 28 29
5 30 31 32 33 34
5 35 36 37 38 39
5 40 41 42 43 44
5 45 46 47 48 49

CELL_TYPES 10
4
4
4
4
4
4
4
4
4
4

POINT_DATA 50
SCALARS u double 1
LOOKUP_TABLE default
-3.3028988357e+07
-9.3815528337e+06
-1.5704963574e+06
8.9435795458e+05
-7.2948616502e+06
-5.8436581836e+07
-1.8081459867e+07
-2.6381263601e+06
8.3238731100e+05
-7.5847466832e+06
-6.1523387240e+07
-1.9874863797e+07
-2.6980817598e+06
4.5247300642e+05
-4.9775162793e+06
-4.1110349821e+07
-1.4076745279e+07
-1.7274616317e+06
-1.0027060762e+05
-4.6904383622e+05
-4.9945560597e+06
-2.9017885149e+06
-9.7009874610e+04
-6.1471425762e+05
4.2185874101e+06
3.3028988357e+07
9.3815528337e+06
1.5704963574e+06
-8.9435795458e+05
7.2948616502e+06
5.8436581836e+07
1.8081459867e+07
2.6381263601e+06
-8.3238731100e+05
7.5847466832e+06
6.1523387240e+07
1.9874863797e+07
2.6980817598e+06
-4.5247300642e+05
4.9775162793e+06
4.1110349821e+07
1.4076745279e+07
1.7274616317e+06
1.0027060762e+05
4.6904383622e+05
4.9945560597e+06
2.9017885149e+06
9.7009874609e+04
6.1471425762e+05
-4.2185874101e+06
