# vtk DataFile Version 3.0
DG1D solution: u t=1.0053096491e-01
ASCII
DATASET UNSTRUCTURED_GRID
POINTS 50 double
0.0000000000e+00 0.0 0.0
2.1692905796e-02 0.0 0.0
3.1415926536e-01 0.0 0.0
6.0662562492e-01 0.0 0.0
6.2831853072e-01 0.0 0.0
6.2831853072e-01 0.0 0.0
6.5001143651e-01 0.0 0.0
9.4247779608e-01 0.0 0.0
1.2349441556e+00 0.0 0.0
1.2566370614e+00 0.0 0.0
1.2566370614e+00 0.0 0.0
1.2783299672e+00 0.0 0.0
1.5707963268e+00 0.0 0.0
1.8632626864e+00 0.0 0.0
1.8849555922e+00 0.0 0.0
1.8849555922e+00 0.0 0.0
1.9066484979e+00 0.0 0.0
2.1991148575e+00 0.0 0.0
2.4915812171e+00 0.0 0.0
2.5132741229e+00 0.0 0.0
2.5132741229e+00 0.0 0.0
2.5349670287e+00 0.0 0.0
2.8274333882e+00 0.0 0.0
3.1198997478e+00 0.0 0.0
3.1415926536e+00 0.0 0.0
3.1415926536e+00 0.0 0.0
3.1632855594e+00 0.0 0.0
3.4557519189e+00 0.0 0.0
3.7482182785e+00 0.0 0.0
3.7699111843e+00 0.0 0.0
3.7699111843e+00 0.0 0.0
3.7916040901e+00 0.0 0.0
4.0840704497e+00 0.0 0.0
4.3765368092e+00 0.0 0.0
4.3982297150e+00 0.0 0.0
4.3982297150e+00 0.0 0.0
4.4199226208e+00 0.0 0.0
4.7123889804e+00 0.0 0.0
5.0048553399e+00 0.0 0.0
5.0265482457e+00 0.0 0.0
5.0265482457e+00 0.0 0.0
5.0482411515e+00 0.0 0.0
5.3407075111e+00 0.0 0.0
5.6331738707e+00 0.0 0.0
5.6548667765e+00 0.0 0.0
5.6548667765e+00 0.0 0.0
5.6765596823e+00 0.0 0.0
5.9690260418e+00 0.0 0.0
6.2614924014e+00 0.0 0.0
6.2831853072e+00 0.0 0.0

CELLS 10 60
5 0 1 2 3 4
5 5 6 7 8 9
5 10 11 12 13 14
5 15 16 17 18 19
5 20 21 22 23 24
5 25 26 27 28 29
5 30 31 32 33 34
5 35 36 37 38 39
5 40 41 42 43 44
5 45 46 47 48 49

CELL_TYPES 10
4
4
4
4
4
4
4
4
4
4

POINT_DATA 50
SCALARS u double 1
LOOKUP_TABLE default
-1.0239785903e-01
-8.0053164893e-02
2.0932807324e-01
4.9920979227e-01
5.1508660503e-01
4.4830805677e-01
4.8214141348e-01
7.4307685265e-01
9.3258998072e-01
9.3724083987e-01
8.2777553232e-01
8.6017435928e-01
9.9299553061e-01
1.0097524941e+00
1.0014009295e+00
8.9106088958e-01
9.0964993609e-01
8.6362366655e-01
7.0122387496e-01
6.8305990046e-01
6.1399127306e-01
6.1167015518e-01
4.0437691536e-01
1.2485156931e-01
1.0381320578e-01
1.0239785903e-01
8.0053164893e-02
-2.0932807324e-01
-4.9920979227e-01
-5.1508660503e-01
-4.4830805677e-01
-4.8214141348e-01
-7.4307685265e-01
-9.3258998072e-01
-9.3724083987e-01
-8.2777553232e-01
-8.6017435928e-01
-9.9299553061e-01
-1.0097524941e+00
-1.0014009295e+00
-8.9106088958e-01
-9.0964993609e-01
-8.6362366655e-01
-7.0122387496e-01
-6.8305990046e-01
-6.1399127306e-01
-6.1167015518e-01
-4.0437691536e-01
-1.2485156931e-01
-1.0381320578e-01
