# vtk DataFile Version 3.0
DG1D solution: u t=5.2778756580e+00
ASCII
DATASET UNSTRUCTURED_GRID
POINTS 50 double
0.0000000000e+00 0.0 0.0
1.0849374910e-01 0.0 0.0
3.1415926536e-01 0.0 0.0
5.1982478161e-01 0.0 0.0
6.2831853072e-01 0.0 0.0
6.2831853072e-01 0.0 0.0
7.3681227982e-01 0.0 0.0
9.4247779608e-01 0.0 0.0
1.1481433123e+00 0.0 0.0
1.2566370614e+00 0.0 0.0
1.2566370614e+00 0.0 0.0
1.3651308105e+00 0.0 0.0
1.5707963268e+00 0.0 0.0
1.7764618430e+00 0.0 0.0
1.8849555922e+00 0.0 0.0
1.8849555922e+00 0.0 0.0
1.9934493413e+00 0.0 0.0
2.1991148575e+00 0.0 0.0
2.4047803738e+00 0.0 0.0
2.5132741229e+00 0.0 0.0
2.5132741229e+00 0.0 0.0
2.6217678720e+00 0.0 0.0
2.8274333882e+00 0.0 0.0
3.0330989045e+00 0.0 0.0
3.1415926536e+00 0.0 0.0
3.1415926536e+00 0.0 0.0
3.2500864027e+00 0.0 0.0
3.4557519189e+00 0.0 0.0
3.6614174352e+00 0.0 0.0
3.7699111843e+00 0.0 0.0
3.7699111843e+00 0.0 0.0
3.8784049334e+00 0.0 0.0
4.0840704497e+00 0.0 0.0
4.2897359659e+00 0.0 0.0
4.3982297150e+00 0.0 0.0
4.3982297150e+00 0.0 0.0
4.5067234641e+00 0.0 0.0
4.7123889804e+00 0.0 0.0
4.9180544966e+00 0.0 0.0
5.0265482457e+00 0.0 0.0
5.0265482457e+00 0.0 0.0
5.1350419948e+00 0.0 0.0
5.3407075111e+00 0.0 0.0
5.5463730274e+00 0.0 0.0
5.6548667765e+00 0.0 0.0
5.6548667765e+00 0.0 0.0
5.7633605256e+00 0.0 0.0
5.9690260418e+00 0.0 0.0
6.1746915581e+00 0.0 0.0
6.2831853072e+00 0.0 0.0

CELLS 10 60
5 0 1 2 3 4
5 5 6 7 8 9
5 10 11 12 13 14
5 15 16 17 18 19
5 20 21 22 23 24
5 25 26 27 28 29
5 30 31 32 33 34
5 35 36 37 38 39
5 40 41 42 43 44
5 45 46 47 48 49

CELL_TYPES 10
4
4
4
4
4
4
4
4
4
4

POINT_DATA 50
SCALARS u double 1
LOOKUP_TABLE default
-3.9800456053e+20
-1.2051032423e+20
-1.8218036257e+19
7.0043970403e+18
-6.1132664091e+19
-4.9355903790e+20
-1.5693424931e+20
-2.1882347224e+19
4.8979929558e+18
-4.8929659897e+19
-4.0059073824e+20
-1.3341462516e+20
-1.7188345304e+19
9.2072203879e+17
-1.8037188681e+19
-1.5461039215e+20
-5.8935148785e+19
-5.9289796889e+18
-3.4082334028e+18
1.9744875551e+19
1.5042586873e+20
3.8055551289e+19
7.5950546491e+18
-6.4353595261e+18
4.9985068425e+19
3.9800456053e+20
1.2051032423e+20
1.8218036257e+19
-7.0043970403e+18
6.1132664091e+19
4.9355903790e+20
1.5693424931e+20
2.1882347224e+19
-4.8979929558e+18
4.8929659897e+19
4.0059073824e+20
1.3341462516e+20
1.7188345304e+19
-9.2072203879e+17
1.8037188681e+19
1.5461039215e+20
5.8935148785e+19
5.9289796889e+18
3.4082334028e+18
-1.9744875551e+19
-1.5042586873e+20
-3.8055551289e+19
-7.5950546491e+18
6.4353595261e+18
-4.9985068425e+19
