# vtk DataFile Version 3.0
DG1D solution: u t=1.1762122895e+00
ASCII
DATASET UNSTRUCTURED_GRID
POINTS 50 double
0.0000000000e+00 0.0 0.0
1.0849374910e-01 0.0 0.0
3.1415926536e-01 0.0 0.0
5.1982478161e-01 0.0 0.0
6.2831853072e-01 0.0 0.0
6.2831853072e-01 0.0 0.0
7.3681227982e-01 0.0 0.0
9.4247779608e-01 0.0 0.0
1.1481433123e+00 0.0 0.0
1.2566370614e+00 0.0 0.0
1.2566370614e+00 0.0 0.0
1.3651308105e+00 0.0 0.0
1.5707963268e+00 0.0 0.0
1.7764618430e+00 0.0 0.0
1.8849555922e+00 0.0 0.0
1.8849555922e+00 0.0 0.0
1.9934493413e+00 0.0 0.0
2.1991148575e+00 0.0 0.0
2.4047803738e+00 0.0 0.0
2.5132741229e+00 0.0 0.0
2.5132741229e+00 0.0 0.0
2.6217678720e+00 0.0 0.0
2.8274333882e+00 0.0 0.0
3.0330989045e+00 0.0 0.0
3.1415926536e+00 0.0 0.0
3.1415926536e+00 0.0 0.0
3.2500864027e+00 0.0 0.0
3.4557519189e+00 0.0 0.0
3.6614174352e+00 0.0 0.0
3.7699111843e+00 0.0 0.0
3.7699111843e+00 0.0 0.0
3.8784049334e+00 0.0 0.0
4.0840704497e+00 0.0 0.0
4.2897359659e+00 0.0 0.0
4.3982297150e+00 0.0 0.0
4.3982297150e+00 0.0 0.0
4.5067234641e+00 0.0 0.0
4.7123889804e+00 0.0 0.0
4.9180544966e+00 0.0 0.0
5.0265482457e+00 0.0 0.0
5.0265482457e+00 0.0 0.0
5.1350419948e+00 0.0 0.0
5.3407075111e+00 0.0 0.0
5.5463730274e+00 0.0 0.0
5.6548667765e+00 0.0 0.0
5.6548667765e+00 0.0 0.0
5.7633605256e+00 0.0 0.0
5.9690260418e+00 0.0 0.0
6.1746915581e+00 0.0 0.0
6.2831853072e+00 0.0 0.0

CELLS 10 60
5 0 1 2 3 4
5 5 6 7 8 9
5 10 11 12 13 14
5 15 16 17 18 19
5 20 21 22 23 24
5 25 26 27 28 29
5 30 31 32 33 34
5 35 36 37 38 39
5 40 41 42 43 44
5 45 46 47 48 49

CELL_TYPES 10
4
4
4
4
4
4
4
4
4
4

POINT_DATA 50
SCALARS u double 1
LOOKUP_TABLE default
-1.3787358215e+02
-3.7520935136e+01
-7.4864046289e+00
4.2354150410e+00
-3.8871081192e+01
-3.0652386102e+02
-9.3838129463e+01
-1.4171137477e+01
4.9717929108e+00
-4.4218218361e+01
-3.5809244335e+02
-1.1431234778e+02
-1.5442977468e+01
3.8091148737e+00
-3.2675499039e+01
-2.7288188342e+02
-9.1123134572e+01
-1.0816124954e+01
1.1914844219e+00
-8.6518496828e+00
-8.3439718948e+01
-3.3127981123e+01
-2.0578803340e+00
-1.8812525820e+00
1.8676512187e+01
1.3787358215e+02
3.7520935136e+01
7.4864046289e+00
-4.2354150410e+00
3.8871081192e+01
3.0652386102e+02
9.3838129463e+01
1.4171137477e+01
-4.9717929108e+00
4.4218218361e+01
3.5809244335e+02
1.1431234778e+02
1.5442977468e+01
-3.8091148737e+00
3.2675499039e+01
2.7288188342e+02
9.1123134572e+01
1.0816124954e+01
-1.1914844219e+00
8.6518496828e+00
8.3439718948e+01
3.3127981123e+01
2.0578803340e+00
1.8812525820e+00
-1.8676512187e+01
