# vtk DataFile Version 3.0
DG1D solution: u t=3.1767784913e+00
ASCII
DATASET UNSTRUCTURED_GRID
POINTS 50 double
0.0000000000e+00 0.0 0.0
2.1692905796e-02 0.0 0.0
3.1415926536e-01 0.0 0.0
6.0662562492e-01 0.0 0.0
6.2831853072e-01 0.0 0.0
6.2831853072e-01 0.0 0.0
6.5001143651e-01 0.0 0.0
9.4247779608e-01 0.0 0.0
1.2349441556e+00 0.0 0.0
1.2566370614e+00 0.0 0.0
1.2566370614e+00 0.0 0.0
1.2783299672e+00 0.0 0.0
1.5707963268e+00 0.0 0.0
1.8632626864e+00 0.0 0.0
1.8849555922e+00 0.0 0.0
1.8849555922e+00 0.0 0.0
1.9066484979e+00 0.0 0.0
2.1991148575e+00 0.0 0.0
2.4915812171e+00 0.0 0.0
2.5132741229e+00 0.0 0.0
2.5132741229e+00 0.0 0.0
2.5349670287e+00 0.0 0.0
2.8274333882e+00 0.0 0.0
3.1198997478e+00 0.0 0.0
3.1415926536e+00 0.0 0.0
3.1415926536e+00 0.0 0.0
3.1632855594e+00 0.0 0.0
3.4557519189e+00 0.0 0.0
3.7482182785e+00 0.0 0.0
3.7699111843e+00 0.0 0.0
3.7699111843e+00 0.0 0.0
3.7916040901e+00 0.0 0.0
4.0840704497e+00 0.0 0.0
4.3765368092e+00 0.0 0.0
4.3982297150e+00 0.0 0.0
4.3982297150e+00 0.0 0.0
4.4199226208e+00 0.0 0.0
4.7123889804e+00 0.0 0.0
5.0048553399e+00 0.0 0.0
5.0265482457e+00 0.0 0.0
5.0265482457e+00 0.0 0.0
5.0482411515e+00 0.0 0.0
5.3407075111e+00 0.0 0.0
5.6331738707e+00 0.0 0.0
5.6548667765e+00 0.0 0.0
5.6548667765e+00 0.0 0.0
5.6765596823e+00 0.0 0.0
5.9690260418e+00 0.0 0.0
6.2614924014e+00 0.0 0.0
6.2831853072e+00 0.0 0.0

CELLS 10 60
5 0 1 2 3 4
5 5 6 7 8 9
5 10 11 12 13 14
5 15 16 17 18 19
5 20 21 22 23 24
5 25 26 27 28 29
5 30 31 32 33 34
5 35 36 37 38 39
5 40 41 42 43 44
5 45 46 47 48 49

CELL_TYPES 10
4
4
4
4
4
4
4
4
4
4

POINT_DATA 50
SCALARS u double 1
LOOKUP_TABLE default
-8.3917211621e+34
-2.7510177803e+35
3.1889877897e+35
-1.5814703689e+36
-9.5535062393e+35
1.0943531328e+37
7.6870168642e+36
-4.6338091084e+34
-2.1979351609e+36
-1.2490732920e+36
1.7790922857e+37
1.2712956336e+37
-3.9387538532e+35
-1.9748634266e+36
-1.0656924170e+36
1.7842786546e+37
1.2882978586e+37
-5.9096566969e+35
-9.9746098639e+35
-4.7525326025e+35
1.1079312229e+37
8.1321408914e+36
-5.6232715443e+35
3.6093764813e+35
2.9671648866e+35
8.3917211621e+34
2.7510177803e+35
-3.1889877897e+35
1.5814703689e+36
9.5535062393e+35
-1.0943531328e+37
-7.6870168642e+36
4.6338091084e+34
2.1979351609e+36
1.2490732920e+36
-1.7790922857e+37
-1.2712956336e+37
3.9387538532e+35
1.9748634266e+36
1.0656924170e+36
-1.7842786546e+37
-1.2882978586e+37
5.9096566969e+35
9.9746098639e+35
4.7525326025e+35
-1.1079312229e+37
-8.1321408914e+36
5.6232715443e+35
-3.6093764813e+35
-2.9671648866e+35
