# vtk DataFile Version 3.0
DG1D solution: u t=4.4836810352e+00
ASCII
DATASET UNSTRUCTURED_GRID
POINTS 50 double
0.0000000000e+00 0.0 0.0
1.0849374910e-01 0.0 0.0
3.1415926536e-01 0.0 0.0
5.1982478161e-01 0.0 0.0
6.2831853072e-01 0.0 0.0
6.2831853072e-01 0.0 0.0
7.3681227982e-01 0.0 0.0
9.4247779608e-01 0.0 0.0
1.1481433123e+00 0.0 0.0
1.2566370614e+00 0.0 0.0
1.2566370614e+00 0.0 0.0
1.3651308105e+00 0.0 0.0
1.5707963268e+00 0.0 0.0
1.7764618430e+00 0.0 0.0
1.8849555922e+00 0.0 0.0
1.8849555922e+00 0.0 0.0
1.9934493413e+00 0.0 0.0
2.1991148575e+00 0.0 0.0
2.4047803738e+00 0.0 0.0
2.5132741229e+00 0.0 0.0
2.5132741229e+00 0.0 0.0
2.6217678720e+00 0.0 0.0
2.8274333882e+00 0.0 0.0
3.0330989045e+00 0.0 0.0
3.1415926536e+00 0.0 0.0
3.1415926536e+00 0.0 0.0
3.2500864027e+00 0.0 0.0
3.4557519189e+00 0.0 0.0
3.6614174352e+00 0.0 0.0
3.7699111843e+00 0.0 0.0
3.7699111843e+00 0.0 0.0
3.8784049334e+00 0.0 0.0
4.0840704497e+00 0.0 0.0
4.2897359659e+00 0.0 0.0
4.3982297150e+00 0.0 0.0
4.3982297150e+00 0.0 0.0
4.5067234641e+00 0.0 0.0
4.7123889804e+00 0.0 0.0
4.9180544966e+00 0.0 0.0
5.0265482457e+00 0.0 0.0
5.0265482457e+00 0.0 0.0
5.1350419948e+00 0.0 0.0
5.3407075111e+00 0.0 0.0
5.5463730274e+00 0.0 0.0
5.6548667765e+00 0.0 0.0
5.6548667765e+00 0.0 0.0
5.7633605256e+00 0.0 0.0
5.9690260418e+00 0.0 0.0
6.1746915581e+00 0.0 0.0
6.2831853072e+00 0.0 0.0

CELLS 10 60
5 0 1 2 3 4
5 5 6 7 8 9
5 10 11 12 13 14
5 15 16 17 18 19
5 20 21 22 23 24
5 25 26 27 28 29
5 30 31 32 33 34
5 35 36 37 38 39
5 40 41 42 43 44
5 45 46 47 48 49

CELL_TYPES 10
4
4
4
4
4
4
4
4
4
4

POINT_DATA 50
SCALARS u double 1
LOOKUP_TABLE default
-1.1225152192e+17
-3.3573841794e+16
-5.1773860533e+15
2.1850246030e+15
-1.8728451347e+16
-1.5089833071e+17
-4.7646156372e+16
-6.7218516486e+15
1.6664561413e+15
-1.6158509626e+16
-1.3190710601e+17
-4.3519258650e+16
-5.6987983815e+15
5.1135807438e+14
-7.4165664361e+15
-6.2531850172e+16
-2.2769483288e+16
-2.4989978277e+15
-8.3906139651e+14
4.1582530529e+15
3.0728447051e+16
6.6774607836e+15
1.6553349585e+15
-1.8689879326e+15
1.4144761210e+16
1.1225152192e+17
3.3573841794e+16
5.1773860533e+15
-2.1850246030e+15
1.8728451347e+16
1.5089833071e+17
4.7646156372e+16
6.7218516486e+15
-1.6664561413e+15
1.6158509626e+16
1.3190710601e+17
4.3519258650e+16
5.6987983815e+15
-5.1135807438e+14
7.4165664361e+15
6.2531850172e+16
2.2769483288e+16
2.4989978277e+15
8.3906139651e+14
-4.1582530529e+15
-3.0728447051e+16
-6.6774607836e+15
-1.6553349585e+15
1.8689879326e+15
-1.4144761210e+16
