# vtk DataFile Version 3.0
DG1D solution: u t=1.4778051842e+00
ASCII
DATASET UNSTRUCTURED_GRID
POINTS 50 double
0.0000000000e+00 0.0 0.0
1.0849374910e-01 0.0 0.0
3.1415926536e-01 0.0 0.0
5.1982478161e-01 0.0 0.0
6.2831853072e-01 0.0 0.0
6.2831853072e-01 0.0 0.0
7.3681227982e-01 0.0 0.0
9.4247779608e-01 0.0 0.0
1.1481433123e+00 0.0 0.0
1.2566370614e+00 0.0 0.0
1.2566370614e+00 0.0 0.0
1.3651308105e+00 0.0 0.0
1.5707963268e+00 0.0 0.0
1.7764618430e+00 0.0 0.0
1.8849555922e+00 0.0 0.0
1.8849555922e+00 0.0 0.0
1.9934493413e+00 0.0 0.0
2.1991148575e+00 0.0 0.0
2.4047803738e+00 0.0 0.0
2.5132741229e+00 0.0 0.0
2.5132741229e+00 0.0 0.0
2.6217678720e+00 0.0 0.0
2.8274333882e+00 0.0 0.0
3.0330989045e+00 0.0 0.0
3.1415926536e+00 0.0 0.0
3.1415926536e+00 0.0 0.0
3.2500864027e+00 0.0 0.0
3.4557519189e+00 0.0 0.0
3.6614174352e+00 0.0 0.0
3.7699111843e+00 0.0 0.0
3.7699111843e+00 0.0 0.0
3.8784049334e+00 0.0 0.0
4.0840704497e+00 0.0 0.0
4.2897359659e+00 0.0 0.0
4.3982297150e+00 0.0 0.0
4.3982297150e+00 0.0 0.0
4.5067234641e+00 0.0 0.0
4.7123889804e+00 0.0 0.0
4.9180544966e+00 0.0 0.0
5.0265482457e+00 0.0 0.0
5.0265482457e+00 0.0 0.0
5.1350419948e+00 0.0 0.0
5.3407075111e+00 0.0 0.0
5.5463730274e+00 0.0 0.0
5.6548667765e+00 0.0 0.0
5.6548667765e+00 0.0 0.0
5.7633605256e+00 0.0 0.0
5.9690260418e+00 0.0 0.0
6.1746915581e+00 0.0 0.0
6.2831853072e+00 0.0 0.0

CELLS 10 60
5 0 1 2 3 4
5 5 6 7 8 9
5 10 11 12 13 14
5 15 16 17 18 19
5 20 21 22 23 24
5 25 26 27 28 29
5 30 31 32 33 34
5 35 36 37 38 39
5 40 41 42 43 44
5 45 46 47 48 49

CELL_TYPES 10
4
4
4
4
4
4
4
4
4
4

POINT_DATA 50
SCALARS u double 1
LOOKUP_TABLE default
-3.2391988527e+03
-8.8440487577e+02
-1.5833744966e+02
1.0524624787e+02
-8.4640444214e+02
-6.7561995267e+03
-2.0704036269e+03
-3.0743853360e+02
1.0628742527e+02
-9.5077791254e+02
-7.6925616162e+03
-2.4655785630e+03
-3.3910854715e+02
6.6730418789e+01
-6.9198653610e+02
-5.6906266289e+03
-1.9189862900e+03
-2.4125062157e+02
1.6846604154e+00
-1.6887982262e+02
-1.5150656867e+03
-6.3940647810e+02
-5.1243158358e+01
-6.4004580977e+01
4.1873324308e+02
3.2391988527e+03
8.8440487577e+02
1.5833744966e+02
-1.0524624787e+02
8.4640444214e+02
6.7561995267e+03
2.0704036269e+03
3.0743853360e+02
-1.0628742527e+02
9.5077791254e+02
7.6925616162e+03
2.4655785630e+03
3.3910854715e+02
-6.6730418789e+01
6.9198653610e+02
5.6906266289e+03
1.9189862900e+03
2.4125062157e+02
-1.6846604154e+00
1.6887982262e+02
1.5150656867e+03
6.3940647810e+02
5.1243158358e+01
6.4004580977e+01
-4.1873324308e+02
