# vtk DataFile Version 3.0
DG1D solution: u t=4.9461234738e+00
ASCII
DATASET UNSTRUCTURED_GRID
POINTS 50 double
0.0000000000e+00 0.0 0.0
1.0849374910e-01 0.0 0.0
3.1415926536e-01 0.0 0.0
5.1982478161e-01 0.0 0.0
6.2831853072e-01 0.0 0.0
6.2831853072e-01 0.0 0.0
7.3681227982e-01 0.0 0.0
9.4247779608e-01 0.0 0.0
1.1481433123e+00 0.0 0.0
1.2566370614e+00 0.0 0.0
1.2566370614e+00 0.0 0.0
1.3651308105e+00 0.0 0.0
1.5707963268e+00 0.0 0.0
1.7764618430e+00 0.0 0.0
1.8849555922e+00 0.0 0.0
1.8849555922e+00 0.0 0.0
1.9934493413e+00 0.0 0.0
2.1991148575e+00 0.0 0.0
2.4047803738e+00 0.0 0.0
2.5132741229e+00 0.0 0.0
2.5132741229e+00 0.0 0.0
2.6217678720e+00 0.0 0.0
2.8274333882e+00 0.0 0.0
3.0330989045e+00 0.0 0.0
3.1415926536e+00 0.0 0.0
3.1415926536e+00 0.0 0.0
3.2500864027e+00 0.0 0.0
3.4557519189e+00 0.0 0.0
3.6614174352e+00 0.0 0.0
3.7699111843e+00 0.0 0.0
3.7699111843e+00 0.0 0.0
3.8784049334e+00 0.0 0.0
4.0840704497e+00 0.0 0.0
4.2897359659e+00 0.0 0.0
4.3982297150e+00 0.0 0.0
4.3982297150e+00 0.0 0.0
4.5067234641e+00 0.0 0.0
4.7123889804e+00 0.0 0.0
4.9180544966e+00 0.0 0.0
5.0265482457e+00 0.0 0.0
5.0265482457e+00 0.0 0.0
5.1350419948e+00 0.0 0.0
5.3407075111e+00 0.0 0.0
5.5463730274e+00 0.0 0.0
5.6548667765e+00 0.0 0.0
5.6548667765e+00 0.0 0.0
5.7633605256e+00 0.0 0.0
5.9690260418e+00 0.0 0.0
6.1746915581e+00 0.0 0.0
6.2831853072e+00 0.0 0.0

CELLS 10 60
5 0 1 2 3 4
5 5 6 7 8 9
5 10 11 12 13 14
5 15 16 17 18 19
5 20 21 22 23 24
5 25 26 27 28 29
5 30 31 32 33 34
5 35 36 37 38 39
5 40 41 42 43 44
5 45 46 47 48 49

CELL_TYPES 10
4
4
4
4
4
4
4
4
4
4

POINT_DATA 50
SCALARS u double 1
LOOKUP_TABLE default
-1.3124694606e+19
-3.9547500576e+18
-6.0258351229e+17
2.4070122066e+17
-2.0849165623e+18
-1.6818472537e+19
-5.3321720735e+18
-7.4712942387e+17
1.7474377914e+17
-1.7229567882e+18
-1.4088165598e+19
-4.6728855912e+18
-6.0629728952e+17
4.2040153309e+16
-7.0288608215e+17
-5.9766582395e+18
-2.2287156386e+18
-2.3388019786e+17
-1.0672138219e+17
5.8566321707e+17
4.4177294272e+18
1.0667479367e+18
2.2787118009e+17
-2.1471897702e+17
1.6505090733e+18
1.3124694606e+19
3.9547500576e+18
6.0258351229e+17
-2.4070122066e+17
2.0849165623e+18
1.6818472537e+19
5.3321720735e+18
7.4712942387e+17
-1.7474377914e+17
1.7229567882e+18
1.4088165598e+19
4.6728855912e+18
6.0629728952e+17
-4.2040153309e+16
7.0288608215e+17
5.9766582395e+18
2.2287156386e+18
2.3388019786e+17
1.0672138219e+17
-5.8566321707e+17
-4.4177294272e+18
-1.0667479367e+18
-2.2787118009e+17
2.1471897702e+17
-1.6505090733e+18
