# vtk DataFile Version 3.0
DG1D solution: u t=6.1424419563e+00
ASCII
DATASET UNSTRUCTURED_GRID
POINTS 50 double
0.0000000000e+00 0.0 0.0
1.0849374910e-01 0.0 0.0
3.1415926536e-01 0.0 0.0
5.1982478161e-01 0.0 0.0
6.2831853072e-01 0.0 0.0
6.2831853072e-01 0.0 0.0
7.3681227982e-01 0.0 0.0
9.4247779608e-01 0.0 0.0
1.1481433123e+00 0.0 0.0
1.2566370614e+00 0.0 0.0
1.2566370614e+00 0.0 0.0
1.3651308105e+00 0.0 0.0
1.5707963268e+00 0.0 0.0
1.7764618430e+00 0.0 0.0
1.8849555922e+00 0.0 0.0
1.8849555922e+00 0.0 0.0
1.9934493413e+00 0.0 0.0
2.1991148575e+00 0.0 0.0
2.4047803738e+00 0.0 0.0
2.5132741229e+00 0.0 0.0
2.5132741229e+00 0.0 0.0
2.6217678720e+00 0.0 0.0
2.8274333882e+00 0.0 0.0
3.0330989045e+00 0.0 0.0
3.1415926536e+00 0.0 0.0
3.1415926536e+00 0.0 0.0
3.2500864027e+00 0.0 0.0
3.4557519189e+00 0.0 0.0
3.6614174352e+00 0.0 0.0
3.7699111843e+00 0.0 0.0
3.7699111843e+00 0.0 0.0
3.8784049334e+00 0.0 0.0
4.0840704497e+00 0.0 0.0
4.2897359659e+00 0.0 0.0
4.3982297150e+00 0.0 0.0
4.3982297150e+00 0.0 0.0
4.5067234641e+00 0.0 0.0
4.7123889804e+00 0.0 0.0
4.9180544966e+00 0.0 0.0
5.0265482457e+00 0.0 0.0
5.0265482457e+00 0.0 0.0
5.1350419948e+00 0.0 0.0
5.3407075111e+00 0.0 0.0
5.5463730274e+00 0.0 0.0
5.6548667765e+00 0.0 0.0
5.6548667765e+00 0.0 0.0
5.7633605256e+00 0.0 0.0
5.9690260418e+00 0.0 0.0
6.1746915581e+00 0.0 0.0
6.2831853072e+00 0.0 0.0

CELLS 10 60
5 0 1 2 3 4
5 5 6 7 8 9
5 10 11 12 13 14
5 15 16 17 18 19
5 20 21 22 23 24
5 25 26 27 28 29
5 30 31 32 33 34
5 35 36 37 38 39
5 40 41 42 43 44
5 45 46 47 48 49

CELL_TYPES 10
4
4
4
4
4
4
4
4
4
4

POINT_DATA 50
SCALARS u double 1
LOOKUP_TABLE default
-2.8549154636e+24
-8.7418654636e+23
-1.2975512418e+23
4.5309208096e+22
-4.0349851455e+23
-3.2649081491e+24
-1.0459931110e+24
-1.4400715226e+23
2.8421741010e+22
-2.9543883315e+23
-2.4278168918e+24
-8.1826585916e+23
-1.0325334280e+23
6.7813487764e+20
-7.4531559076e+22
-6.6338210023e+23
-2.7798886100e+23
-2.3060265845e+22
-2.7324495729e+22
1.7484423733e+23
1.3544421061e+24
3.6847043357e+23
6.5941048875e+22
-4.4890097693e+22
3.5743547781e+23
2.8549154636e+24
8.7418654636e+23
1.2975512418e+23
-4.5309208096e+22
4.0349851455e+23
3.2649081491e+24
1.0459931110e+24
1.4400715226e+23
-2.8421741010e+22
2.9543883315e+23
2.4278168918e+24
8.1826585916e+23
1.0325334280e+23
-6.7813487764e+20
7.4531559076e+22
6.6338210023e+23
2.7798886100e+23
2.3060265845e+22
2.7324495729e+22
-1.7484423733e+23
-1.3544421061e+24
-3.6847043357e+23
-6.5941048875e+22
4.4890097693e+22
-3.5743547781e+23
