# vtk DataFile Version 3.0
DG1D solution: u t=7.2382294739e-01
ASCII
DATASET UNSTRUCTURED_GRID
POINTS 50 double
0.0000000000e+00 0.0 0.0
1.0849374910e-01 0.0 0.0
3.1415926536e-01 0.0 0.0
5.1982478161e-01 0.0 0.0
6.2831853072e-01 0.0 0.0
6.2831853072e-01 0.0 0.0
7.3681227982e-01 0.0 0.0
9.4247779608e-01 0.0 0.0
1.1481433123e+00 0.0 0.0
1.2566370614e+00 0.0 0.0
1.2566370614e+00 0.0 0.0
1.3651308105e+00 0.0 0.0
1.5707963268e+00 0.0 0.0
1.7764618430e+00 0.0 0.0
1.8849555922e+00 0.0 0.0
1.8849555922e+00 0.0 0.0
1.9934493413e+00 0.0 0.0
2.1991148575e+00 0.0 0.0
2.4047803738e+00 0.0 0.0
2.5132741229e+00 0.0 0.0
2.5132741229e+00 0.0 0.0
2.6217678720e+00 0.0 0.0
2.8274333882e+00 0.0 0.0
3.0330989045e+00 0.0 0.0
3.1415926536e+00 0.0 0.0
3.1415926536e+00 0.0 0.0
3.2500864027e+00 0.0 0.0
3.4557519189e+00 0.0 0.0
3.6614174352e+00 0.0 0.0
3.7699111843e+00 0.0 0.0
3.7699111843e+00 0.0 0.0
3.8784049334e+00 0.0 0.0
4.0840704497e+00 0.0 0.0
4.2897359659e+00 0.0 0.0
4.3982297150e+00 0.0 0.0
4.3982297150e+00 0.0 0.0
4.5067234641e+00 0.0 0.0
4.7123889804e+00 0.0 0.0
4.9180544966e+00 0.0 0.0
5.0265482457e+00 0.0 0.0
5.0265482457e+00 0.0 0.0
5.1350419948e+00 0.0 0.0
5.3407075111e+00 0.0 0.0
5.5463730274e+00 0.0 0.0
5.6548667765e+00 0.0 0.0
5.6548667765e+00 0.0 0.0
5.7633605256e+00 0.0 0.0
5.9690260418e+00 0.0 0.0
6.1746915581e+00 0.0 0.0
6.2831853072e+00 0.0 0.0

CELLS 10 60
5 0 1 2 3 4
5 5 6 7 8 9
5 10 11 12 13 14
5 15 16 17 18 19
5 20 21 22 23 24
5 25 26 27 28 29
5 30 31 32 33 34
5 35 36 37 38 39
5 40 41 42 43 44
5 45 46 47 48 49

CELL_TYPES 10
4
4
4
4
4
4
4
4
4
4

POINT_DATA 50
SCALARS u double 1
LOOKUP_TABLE default
-1.8317142306e+00
-8.8095761795e-01
-4.6045213768e-01
-1.5887597833e-01
-4.6808853632e-01
-3.0359210596e+00
-8.8198475606e-01
7.8126345549e-02
4.5876730425e-01
6.1335040757e-02
-3.0805092310e+00
-5.4612369491e-01
5.8686322020e-01
9.0117706953e-01
5.6733071696e-01
-1.9484475788e+00
-1.6619443676e-03
8.7143829147e-01
9.9936782413e-01
8.5662534215e-01
-7.2145176818e-02
5.4343461244e-01
8.2315355451e-01
7.1583403718e-01
8.1871820226e-01
1.8317142306e+00
8.8095761795e-01
4.6045213768e-01
1.5887597833e-01
4.6808853632e-01
3.0359210596e+00
8.8198475606e-01
-7.8126345549e-02
-4.5876730425e-01
-6.1335040757e-02
3.0805092310e+00
5.4612369491e-01
-5.8686322020e-01
-9.0117706953e-01
-5.6733071696e-01
1.9484475788e+00
1.6619443676e-03
-8.7143829147e-01
-9.9936782413e-01
-8.5662534215e-01
7.2145176818e-02
-5.4343461244e-01
-8.2315355451e-01
-7.1583403718e-01
-8.1871820226e-01
